version 3
run General-0-20250212-20:00:08-21676
attr configname General
attr datetime 20250212-20:00:08
attr datetimef 20250212-200008
attr experiment General
attr inifile SAOCOM.ini
attr iterationvars ""
attr iterationvarsd ""
attr iterationvarsf ""
attr measurement ""
attr network SAOCOMNetwork
attr processid 21676
attr repetition 0
attr replication #0
attr resultdir results
attr runnumber 0
attr seedset 0
config network SAOCOMNetwork
config record-eventlog true
config sim-time-limit 518400s
config **.vector-recording true
config *.groundNetworkChannel.usageTime.record true
config output-vector-file results.vec
config *.sim_start_time_year 2019
config *.sim_start_time_month 2
config *.sim_start_time_day 23

vector 0 SAOCOMNetwork.GS.out.channel usageTime:vector ETV
attr recordingmode vector
attr title "Network Usage Time"
0	3	71340	30
0	5	71370	30
0	7	71400	200
0	9	71600	30
0	11	71630	30
0	13	71660	30
0	15	71690	30
0	17	71720	30
0	19	71750	30
0	21	71780	30
0	26	82850	30
0	28	82880	30
0	30	82910	200
0	32	83110	30
0	34	83140	30
0	36	83170	30
0	38	83200	30
0	40	83230	30
0	42	83260	30
0	44	83290	30
0	49	149330	30
0	51	149360	30
0	53	149390	200
0	55	149590	30
0	57	149620	30
0	59	149650	30
0	61	149680	30
0	63	149710	30
0	65	149740	30
0	67	149770	30
0	74	246300	30
0	76	246330	30
0	78	246360	200
0	80	246560	30
0	82	246590	30
0	84	246620	30
0	86	246650	30
0	88	246680	30
0	90	246710	30
0	92	246740	30
0	97	257790	30
0	99	257820	30
0	101	257850	200
0	103	258050	30
0	105	258080	30
0	107	258110	30
0	109	258140	30
0	111	258170	30
0	113	258200	30
0	115	258230	30
0	119	324260	30
0	121	324290	30
0	123	324320	200
0	125	324520	30
0	127	324550	30
0	129	324580	30
0	131	324610	30
0	133	324640	30
0	135	324670	30
0	137	324700	30
0	144	421270	30
0	146	421300	30
0	148	421330	200
0	150	421530	30
0	152	421560	30
0	154	421590	30
0	156	421620	30
0	158	421650	30
0	160	421680	30
0	162	421710	30
0	168	499210	30
0	170	499240	30
0	172	499270	200
0	174	499470	30
0	176	499500	30
0	178	499530	30
0	180	499560	30
0	182	499590	30
0	184	499620	30
0	186	499650	30
0	190	510760	30
0	192	510790	30
0	194	510820	200
0	196	511020	30
0	198	511050	30
0	200	511080	30
0	202	511110	30
0	204	511140	30
0	206	511170	30
0	208	511200	30

